TITLE = "Post Processing Tecplot"
VARIABLES = "T"
ZONE T="BIG ZONE", I=3, J=3, DATAPACKING=POINT
0,0,1.000000
1,0,2.000000
2,0,3.000000
0,1,4.000000
1,1,5.000000
2,1,6.000000
0,2,7.000000
1,2,8.000000
2,2,9.000000
