TITLE = "Post Processing Tecplot"
VARIABLES = "X","Y","T"
ZONE T="BIG ZONE", I=2, J=2, DATAPACKING=POINT
0.000000,0.000000,0.000000
0.548545,0.000000,0.000000
0.000000,0.294725,0.000000
0.548545,0.294725,0.000000
